
  ___ ___ ___ _ _ _  
 |   |   |_  | | | | 
 | | | | | . | | | | 
 |__ |  _|___|_____|  25.1.0
 |___|_|             

User:   ameerracle@DESKTOP-G338N4U
Date:   Tue Jun  3 21:08:23 2025
Arch:   x86_64
Pid:    55377
CWD:    /home/ameerracle/GPAW_MN
Python: 3.12.9
gpaw:   /home/ameerracle/miniconda3/envs/gpaw/lib/python3.12/site-packages/gpaw
_gpaw:  /home/ameerracle/miniconda3/envs/gpaw/lib/python3.12/site-packages/
        _gpaw.cpython-312-x86_64-linux-gnu.so (f224f7f1d9)
ase:    /home/ameerracle/miniconda3/envs/gpaw/lib/python3.12/site-packages/ase (version 3.25.0)
numpy:  /home/ameerracle/miniconda3/envs/gpaw/lib/python3.12/site-packages/numpy (version 2.0.1)
scipy:  /home/ameerracle/miniconda3/envs/gpaw/lib/python3.12/site-packages/scipy (version 1.15.3)
libxc:  7.0.0
units:  Angstrom and eV
cores: 1
OpenMP: False
OMP_NUM_THREADS: 1

Input parameters:
  kpts: {gamma: True,
         size: (6, 6, 6)}
  mode: {ecut: 300.0,
         name: pw}
  occupations: {fixmagmom: False,
                name: fermi-dirac,
                width: 0.05}
  xc: PBE

System changes: positions, numbers, cell, pbc, initial_charges, initial_magmoms 

Initialize ...

species:
  Ti:
    name: Titanium
    id: d282db07e62ae71292040bf25b25ccdd
    Z: 22.0
    valence: 12
    core: 10
    charge: 0.0
    file: /home/ameerracle/miniconda3/envs/gpaw/lib/python3.12/site-packages/gpaw_data/setups/Ti.PBE.gz
    compensation charges: {type: gauss,
                           rc: 0.38,
                           lmax: 2}
    cutoffs: {filter: 2.23,
              core: 1.02}
    projectors:
      #              energy  rcut
      - 3s(2.00)   -62.623   1.270
      - 4s(2.00)    -4.466   1.270
      - 3p(6.00)   -38.862   1.058
      - 4p(0.00)    -1.466   1.058
      - 3d(2.00)    -4.258   1.058
      -  d          22.953   1.058
  
    # Using partial waves for Ti as LCAO basis

  N:
    name: Nitrogen
    id: f7500608b86eaa90eef8b1d9a670dc53
    Z: 7.0
    valence: 5
    core: 2
    charge: 0.0
    file: /home/ameerracle/miniconda3/envs/gpaw/lib/python3.12/site-packages/gpaw_data/setups/N.PBE.gz
    compensation charges: {type: gauss,
                           rc: 0.18,
                           lmax: 2}
    cutoffs: {filter: 1.11,
              core: 0.96}
    projectors:
      #              energy  rcut
      - 2s(2.00)   -18.583   0.603
      - 2p(3.00)    -7.089   0.529
      -  s           8.629   0.603
      -  p          20.123   0.529
      -  d           0.000   0.577
  
    # Using partial waves for N as LCAO basis

Reference energy: -98822.943144  # eV

Spin-paired calculation

Convergence criteria:
 Maximum [total energy] change in last 3 cyles: 0.0005 eV / valence electron
 Maximum integral of absolute [dens]ity change: 0.0001 electrons / valence electron
 Maximum integral of absolute [eigenst]ate change: 4e-08 eV^2 / valence electron
 Maximum number of scf [iter]ations: 333
 (Square brackets indicate name in SCF output, whereas a 'c' in
 the SCF output indicates the quantity has converged.)

Symmetries present (total): 48

  ( 1  0  0)  ( 1  0  0)  ( 1  0  0)  ( 1  0  0)  ( 1  0  0)  ( 1  0  0)
  ( 0  1  0)  ( 0  1  0)  ( 0  0  1)  ( 0  0  1)  ( 0  0 -1)  ( 0  0 -1)
  ( 0  0  1)  ( 0  0 -1)  ( 0  1  0)  ( 0 -1  0)  ( 0  1  0)  ( 0 -1  0)

  ( 1  0  0)  ( 1  0  0)  ( 0  1  0)  ( 0  1  0)  ( 0  1  0)  ( 0  1  0)
  ( 0 -1  0)  ( 0 -1  0)  ( 1  0  0)  ( 1  0  0)  ( 0  0  1)  ( 0  0  1)
  ( 0  0  1)  ( 0  0 -1)  ( 0  0  1)  ( 0  0 -1)  ( 1  0  0)  (-1  0  0)

  ( 0  1  0)  ( 0  1  0)  ( 0  1  0)  ( 0  1  0)  ( 0  0  1)  ( 0  0  1)
  ( 0  0 -1)  ( 0  0 -1)  (-1  0  0)  (-1  0  0)  ( 1  0  0)  ( 1  0  0)
  ( 1  0  0)  (-1  0  0)  ( 0  0  1)  ( 0  0 -1)  ( 0  1  0)  ( 0 -1  0)

  ( 0  0  1)  ( 0  0  1)  ( 0  0  1)  ( 0  0  1)  ( 0  0  1)  ( 0  0  1)
  ( 0  1  0)  ( 0  1  0)  ( 0 -1  0)  ( 0 -1  0)  (-1  0  0)  (-1  0  0)
  ( 1  0  0)  (-1  0  0)  ( 1  0  0)  (-1  0  0)  ( 0  1  0)  ( 0 -1  0)

  ( 0  0 -1)  ( 0  0 -1)  ( 0  0 -1)  ( 0  0 -1)  ( 0  0 -1)  ( 0  0 -1)
  ( 1  0  0)  ( 1  0  0)  ( 0  1  0)  ( 0  1  0)  ( 0 -1  0)  ( 0 -1  0)
  ( 0  1  0)  ( 0 -1  0)  ( 1  0  0)  (-1  0  0)  ( 1  0  0)  (-1  0  0)

  ( 0  0 -1)  ( 0  0 -1)  ( 0 -1  0)  ( 0 -1  0)  ( 0 -1  0)  ( 0 -1  0)
  (-1  0  0)  (-1  0  0)  ( 1  0  0)  ( 1  0  0)  ( 0  0  1)  ( 0  0  1)
  ( 0  1  0)  ( 0 -1  0)  ( 0  0  1)  ( 0  0 -1)  ( 1  0  0)  (-1  0  0)

  ( 0 -1  0)  ( 0 -1  0)  ( 0 -1  0)  ( 0 -1  0)  (-1  0  0)  (-1  0  0)
  ( 0  0 -1)  ( 0  0 -1)  (-1  0  0)  (-1  0  0)  ( 0  1  0)  ( 0  1  0)
  ( 1  0  0)  (-1  0  0)  ( 0  0  1)  ( 0  0 -1)  ( 0  0  1)  ( 0  0 -1)

  (-1  0  0)  (-1  0  0)  (-1  0  0)  (-1  0  0)  (-1  0  0)  (-1  0  0)
  ( 0  0  1)  ( 0  0  1)  ( 0  0 -1)  ( 0  0 -1)  ( 0 -1  0)  ( 0 -1  0)
  ( 0  1  0)  ( 0 -1  0)  ( 0  1  0)  ( 0 -1  0)  ( 0  0  1)  ( 0  0 -1)

216 k-points: 6 x 6 x 6 Monkhorst-Pack grid + [1/12,1/12,1/12]
20 k-points in the irreducible part of the Brillouin zone
       k-points in crystal coordinates                weights
   0:     0.00000000    0.00000000    0.00000000          1/216
   1:     0.16666667    0.00000000    0.00000000          6/216
   2:     0.16666667    0.16666667    0.00000000         12/216
   3:     0.16666667    0.16666667    0.16666667          8/216
   4:     0.33333333    0.00000000    0.00000000          6/216
   5:     0.33333333    0.16666667    0.00000000         24/216
   6:     0.33333333    0.16666667    0.16666667         24/216
   7:     0.33333333    0.33333333    0.00000000         12/216
   8:     0.33333333    0.33333333    0.16666667         24/216
   9:     0.33333333    0.33333333    0.33333333          8/216
          ...
  19:     0.50000000    0.50000000    0.50000000          1/216

Wave functions: Plane wave expansion
  Cutoff energy: 300.000 eV
  Number of coefficients (min, max): 884, 922
  Pulay-stress correction: 0.000000 eV/Ang^3 (de/decut=0.000000)
  Using Numpy's FFT
  ScaLapack parameters: grid=1x1, blocksize=None
  Wavefunction extrapolation:
    Improved wavefunction reuse through dual PAW basis 

Occupation numbers: Fermi-Dirac:
  width: 0.0500  # eV
 

Eigensolver
   Davidson(niter=2) 

Densities:
  Coarse grid: 18*18*18 grid
  Fine grid: 36*36*36 grid
  Total Charge: 0.000000 

Density mixing:
  Method: separate
  Backend: pulay
  Linear mixing parameter: 0.05
  old densities: 5
  Damping of long wavelength oscillations: 50 

Hamiltonian:
  XC and Coulomb potentials evaluated on a 36*36*36 grid
  Using the PBE Exchange-Correlation functional
  External potential:
    NoExternalPotential
 

XC parameters: PBE with 2 nearest neighbor stencil

Memory estimate:
  Process memory now: 148.98 MiB
  Calculator: 22.21 MiB
    Density: 2.79 MiB
      Arrays: 1.16 MiB
      Localized functions: 1.19 MiB
      Mixer: 0.44 MiB
    Hamiltonian: 0.79 MiB
      Arrays: 0.76 MiB
      XC: 0.00 MiB
      Poisson: 0.00 MiB
      vbar: 0.03 MiB
    Wavefunctions: 18.63 MiB
      Arrays psit_nG: 12.66 MiB
      Eigensolver: 1.01 MiB
      Projections: 1.70 MiB
      Projectors: 2.75 MiB
      PW-descriptor: 0.50 MiB

Total number of cores used: 1

Number of atoms: 8
Number of atomic orbitals: 68
Number of bands in calculation: 45
Number of valence electrons: 68
Bands to converge: occupied

... initialized

Initializing position-dependent things.

Density initialized from atomic densities
Creating initial wave functions:
  45 bands from LCAO basis set

    .---------.  
   /|         |  
  / |         |  
 *  |         |  
 |Ti|  N      |  
 |  .---------.  
 N /  Ti     /   
 |/    Ti   /    
 Ti---N----*     

Positions:
   0 Ti     0.000000    0.000000    0.000000    ( 0.0000,  0.0000,  0.0000)
   1 Ti     2.120623    2.120623    0.000000    ( 0.0000,  0.0000,  0.0000)
   2 Ti     2.120623    0.000000    2.120623    ( 0.0000,  0.0000,  0.0000)
   3 Ti     0.000000    2.120623    2.120623    ( 0.0000,  0.0000,  0.0000)
   4 N      0.000000    0.000000    2.120623    ( 0.0000,  0.0000,  0.0000)
   5 N      2.120623    0.000000    0.000000    ( 0.0000,  0.0000,  0.0000)
   6 N      0.000000    2.120623    0.000000    ( 0.0000,  0.0000,  0.0000)
   7 N      2.120623    2.120623    2.120623    ( 0.0000,  0.0000,  0.0000)

Unit cell:
           periodic     x           y           z      points  spacing
  1. axis:    yes    4.241247    0.000000    0.000000    18     0.2356
  2. axis:    yes    0.000000    4.241247    0.000000    18     0.2356
  3. axis:    yes    0.000000    0.000000    4.241247    18     0.2356

  Lengths:   4.241247   4.241247   4.241247
  Angles:   90.000000  90.000000  90.000000

Effective grid spacing dv^(1/3) = 0.2356

     iter     time        total  log10-change:
                         energy   eigst   dens
iter:   1 21:08:29   -55.376661
Timing:                              incl.     excl.
-----------------------------------------------------------
Hamiltonian:                         0.173     0.000   0.0% |
 Atomic:                             0.151     0.001   0.0% |
  XC Correction:                     0.151     0.151   2.1% ||
 Calculate atomic Hamiltonians:      0.009     0.009   0.1% |
 Communicate:                        0.000     0.000   0.0% |
 Initialize Hamiltonian:             0.000     0.000   0.0% |
 Poisson:                            0.000     0.000   0.0% |
 XC 3D grid:                         0.012     0.012   0.2% |
LCAO initialization:                 4.089     0.070   1.0% |
 LCAO eigensolver:                   0.595     0.001   0.0% |
  Calculate projections:             0.003     0.003   0.0% |
  DenseAtomicCorrection:             0.006     0.006   0.1% |
  Distribute overlap matrix:         0.000     0.000   0.0% |
  Orbital Layouts:                   0.029     0.029   0.4% |
  Potential matrix:                  0.538     0.538   7.5% |--|
  Sum over cells:                    0.018     0.018   0.3% |
 LCAO to grid:                       2.829     2.829  39.5% |---------------|
 Set positions (LCAO WFS):           0.595     0.104   1.5% ||
  Basic WFS set positions:           0.006     0.006   0.1% |
  Basis functions set positions:     0.000     0.000   0.0% |
  P tci:                             0.264     0.264   3.7% ||
  ST tci:                            0.208     0.208   2.9% ||
  mktci:                             0.013     0.013   0.2% |
PWDescriptor:                        0.003     0.003   0.0% |
SCF-cycle:                           2.573     0.040   0.6% |
 Davidson:                           2.172     0.201   2.8% ||
  Apply H:                           0.428     0.418   5.8% |-|
   HMM T:                            0.009     0.009   0.1% |
  Subspace diag:                     0.475     0.001   0.0% |
   calc_h_matrix:                    0.435     0.014   0.2% |
    Apply H:                         0.422     0.412   5.8% |-|
     HMM T:                          0.010     0.010   0.1% |
   diagonalize:                      0.024     0.024   0.3% |
   rotate_psi:                       0.014     0.014   0.2% |
  calc. matrices:                    0.916     0.086   1.2% |
   Apply H:                          0.830     0.811  11.3% |----|
    HMM T:                           0.018     0.018   0.3% |
  diagonalize:                       0.127     0.127   1.8% ||
  rotate_psi:                        0.026     0.026   0.4% |
 Density:                            0.148     0.000   0.0% |
  Atomic density matrices:           0.004     0.004   0.1% |
  Mix:                               0.014     0.014   0.2% |
  Multipole moments:                 0.000     0.000   0.0% |
  Pseudo density:                    0.129     0.123   1.7% ||
   Symmetrize density:               0.006     0.006   0.1% |
 Hamiltonian:                        0.174     0.000   0.0% |
  Atomic:                            0.154     0.001   0.0% |
   XC Correction:                    0.153     0.153   2.1% ||
  Calculate atomic Hamiltonians:     0.009     0.009   0.1% |
  Communicate:                       0.000     0.000   0.0% |
  Poisson:                           0.000     0.000   0.0% |
  XC 3D grid:                        0.010     0.010   0.1% |
 Orthonormalize:                     0.039     0.001   0.0% |
  calc_s_matrix:                     0.009     0.009   0.1% |
  inverse-cholesky:                  0.006     0.006   0.1% |
  projections:                       0.019     0.019   0.3% |
  rotate_psi_s:                      0.004     0.004   0.1% |
Set symmetry:                        0.015     0.015   0.2% |
Other:                               0.305     0.305   4.3% |-|
-----------------------------------------------------------
Total:                                         7.157 100.0%

Memory usage: 222.16 MiB
Date: Tue Jun  3 21:08:30 2025
