
  ___ ___ ___ _ _ _  
 |   |   |_  | | | | 
 | | | | | . | | | | 
 |__ |  _|___|_____|  25.1.0
 |___|_|             

User:   ameerracle@DESKTOP-G338N4U
Date:   Tue Jun  3 21:57:25 2025
Arch:   x86_64
Pid:    66565
CWD:    /home/ameerracle/GPAW_MN
Python: 3.12.2
gpaw:   /home/ameerracle/miniconda3/envs/gpaw/lib/python3.12/site-packages/gpaw
_gpaw:  /home/ameerracle/miniconda3/envs/gpaw/lib/python3.12/site-packages/
        _gpaw.cpython-312-x86_64-linux-gnu.so (f224f7f1d9)
ase:    /home/ameerracle/miniconda3/envs/gpaw/lib/python3.12/site-packages/ase (version 3.25.0)
numpy:  /home/ameerracle/miniconda3/envs/gpaw/lib/python3.12/site-packages/numpy (version 2.0.1)
scipy:  /home/ameerracle/miniconda3/envs/gpaw/lib/python3.12/site-packages/scipy (version 1.15.3)
libxc:  7.0.0
units:  Angstrom and eV
cores: 1
OpenMP: False
OMP_NUM_THREADS: 1

Input parameters:
  kpts: {gamma: True,
         size: (6, 6, 6)}
  mode: {ecut: 342.85714285714283,
         name: pw}
  occupations: {fixmagmom: False,
                name: fermi-dirac,
                width: 0.05}
  xc: PBE

System changes: positions, numbers, cell, pbc, initial_charges, initial_magmoms 

Initialize ...

species:
  Ti:
    name: Titanium
    id: d282db07e62ae71292040bf25b25ccdd
    Z: 22.0
    valence: 12
    core: 10
    charge: 0.0
    file: /home/ameerracle/miniconda3/envs/gpaw/lib/python3.12/site-packages/gpaw_data/setups/Ti.PBE.gz
    compensation charges: {type: gauss,
                           rc: 0.38,
                           lmax: 2}
    cutoffs: {filter: 2.23,
              core: 1.02}
    projectors:
      #              energy  rcut
      - 3s(2.00)   -62.623   1.270
      - 4s(2.00)    -4.466   1.270
      - 3p(6.00)   -38.862   1.058
      - 4p(0.00)    -1.466   1.058
      - 3d(2.00)    -4.258   1.058
      -  d          22.953   1.058
  
    # Using partial waves for Ti as LCAO basis

  N:
    name: Nitrogen
    id: f7500608b86eaa90eef8b1d9a670dc53
    Z: 7.0
    valence: 5
    core: 2
    charge: 0.0
    file: /home/ameerracle/miniconda3/envs/gpaw/lib/python3.12/site-packages/gpaw_data/setups/N.PBE.gz
    compensation charges: {type: gauss,
                           rc: 0.18,
                           lmax: 2}
    cutoffs: {filter: 1.11,
              core: 0.96}
    projectors:
      #              energy  rcut
      - 2s(2.00)   -18.583   0.603
      - 2p(3.00)    -7.089   0.529
      -  s           8.629   0.603
      -  p          20.123   0.529
      -  d           0.000   0.577
  
    # Using partial waves for N as LCAO basis

Reference energy: -98822.943144  # eV

Spin-paired calculation

Convergence criteria:
 Maximum [total energy] change in last 3 cyles: 0.0005 eV / valence electron
 Maximum integral of absolute [dens]ity change: 0.0001 electrons / valence electron
 Maximum integral of absolute [eigenst]ate change: 4e-08 eV^2 / valence electron
 Maximum number of scf [iter]ations: 333
 (Square brackets indicate name in SCF output, whereas a 'c' in
 the SCF output indicates the quantity has converged.)

Symmetries present (total): 48

  ( 1  0  0)  ( 1  0  0)  ( 1  0  0)  ( 1  0  0)  ( 1  0  0)  ( 1  0  0)
  ( 0  1  0)  ( 0  1  0)  ( 0  0  1)  ( 0  0  1)  ( 0  0 -1)  ( 0  0 -1)
  ( 0  0  1)  ( 0  0 -1)  ( 0  1  0)  ( 0 -1  0)  ( 0  1  0)  ( 0 -1  0)

  ( 1  0  0)  ( 1  0  0)  ( 0  1  0)  ( 0  1  0)  ( 0  1  0)  ( 0  1  0)
  ( 0 -1  0)  ( 0 -1  0)  ( 1  0  0)  ( 1  0  0)  ( 0  0  1)  ( 0  0  1)
  ( 0  0  1)  ( 0  0 -1)  ( 0  0  1)  ( 0  0 -1)  ( 1  0  0)  (-1  0  0)

  ( 0  1  0)  ( 0  1  0)  ( 0  1  0)  ( 0  1  0)  ( 0  0  1)  ( 0  0  1)
  ( 0  0 -1)  ( 0  0 -1)  (-1  0  0)  (-1  0  0)  ( 1  0  0)  ( 1  0  0)
  ( 1  0  0)  (-1  0  0)  ( 0  0  1)  ( 0  0 -1)  ( 0  1  0)  ( 0 -1  0)

  ( 0  0  1)  ( 0  0  1)  ( 0  0  1)  ( 0  0  1)  ( 0  0  1)  ( 0  0  1)
  ( 0  1  0)  ( 0  1  0)  ( 0 -1  0)  ( 0 -1  0)  (-1  0  0)  (-1  0  0)
  ( 1  0  0)  (-1  0  0)  ( 1  0  0)  (-1  0  0)  ( 0  1  0)  ( 0 -1  0)

  ( 0  0 -1)  ( 0  0 -1)  ( 0  0 -1)  ( 0  0 -1)  ( 0  0 -1)  ( 0  0 -1)
  ( 1  0  0)  ( 1  0  0)  ( 0  1  0)  ( 0  1  0)  ( 0 -1  0)  ( 0 -1  0)
  ( 0  1  0)  ( 0 -1  0)  ( 1  0  0)  (-1  0  0)  ( 1  0  0)  (-1  0  0)

  ( 0  0 -1)  ( 0  0 -1)  ( 0 -1  0)  ( 0 -1  0)  ( 0 -1  0)  ( 0 -1  0)
  (-1  0  0)  (-1  0  0)  ( 1  0  0)  ( 1  0  0)  ( 0  0  1)  ( 0  0  1)
  ( 0  1  0)  ( 0 -1  0)  ( 0  0  1)  ( 0  0 -1)  ( 1  0  0)  (-1  0  0)

  ( 0 -1  0)  ( 0 -1  0)  ( 0 -1  0)  ( 0 -1  0)  (-1  0  0)  (-1  0  0)
  ( 0  0 -1)  ( 0  0 -1)  (-1  0  0)  (-1  0  0)  ( 0  1  0)  ( 0  1  0)
  ( 1  0  0)  (-1  0  0)  ( 0  0  1)  ( 0  0 -1)  ( 0  0  1)  ( 0  0 -1)

  (-1  0  0)  (-1  0  0)  (-1  0  0)  (-1  0  0)  (-1  0  0)  (-1  0  0)
  ( 0  0  1)  ( 0  0  1)  ( 0  0 -1)  ( 0  0 -1)  ( 0 -1  0)  ( 0 -1  0)
  ( 0  1  0)  ( 0 -1  0)  ( 0  1  0)  ( 0 -1  0)  ( 0  0  1)  ( 0  0 -1)

216 k-points: 6 x 6 x 6 Monkhorst-Pack grid + [1/12,1/12,1/12]
20 k-points in the irreducible part of the Brillouin zone
       k-points in crystal coordinates                weights
   0:     0.00000000    0.00000000    0.00000000          1/216
   1:     0.16666667    0.00000000    0.00000000          6/216
   2:     0.16666667    0.16666667    0.00000000         12/216
   3:     0.16666667    0.16666667    0.16666667          8/216
   4:     0.33333333    0.00000000    0.00000000          6/216
   5:     0.33333333    0.16666667    0.00000000         24/216
   6:     0.33333333    0.16666667    0.16666667         24/216
   7:     0.33333333    0.33333333    0.00000000         12/216
   8:     0.33333333    0.33333333    0.16666667         24/216
   9:     0.33333333    0.33333333    0.33333333          8/216
          ...
  19:     0.50000000    0.50000000    0.50000000          1/216

Wave functions: Plane wave expansion
  Cutoff energy: 342.857 eV
  Number of coefficients (min, max): 1088, 1141
  Pulay-stress correction: 0.000000 eV/Ang^3 (de/decut=0.000000)
  Using Numpy's FFT
  ScaLapack parameters: grid=1x1, blocksize=None
  Wavefunction extrapolation:
    Improved wavefunction reuse through dual PAW basis 

Occupation numbers: Fermi-Dirac:
  width: 0.0500  # eV
 

Eigensolver
   Davidson(niter=2) 

Densities:
  Coarse grid: 20*20*20 grid
  Fine grid: 40*40*40 grid
  Total Charge: 0.000000 

Density mixing:
  Method: separate
  Backend: pulay
  Linear mixing parameter: 0.05
  old densities: 5
  Damping of long wavelength oscillations: 50 

Hamiltonian:
  XC and Coulomb potentials evaluated on a 40*40*40 grid
  Using the PBE Exchange-Correlation functional
  External potential:
    NoExternalPotential
 

XC parameters: PBE with 2 nearest neighbor stencil

Memory estimate:
  Process memory now: 223.79 MiB
  Calculator: 27.30 MiB
    Density: 3.66 MiB
      Arrays: 1.59 MiB
      Localized functions: 1.46 MiB
      Mixer: 0.61 MiB
    Hamiltonian: 1.07 MiB
      Arrays: 1.04 MiB
      XC: 0.00 MiB
      Poisson: 0.00 MiB
      vbar: 0.04 MiB
    Wavefunctions: 22.57 MiB
      Arrays psit_nG: 15.67 MiB
      Eigensolver: 1.18 MiB
      Projections: 1.70 MiB
      Projectors: 3.36 MiB
      PW-descriptor: 0.65 MiB

Total number of cores used: 1

Number of atoms: 8
Number of atomic orbitals: 68
Number of bands in calculation: 45
Number of valence electrons: 68
Bands to converge: occupied

... initialized

Initializing position-dependent things.

Density initialized from atomic densities
Creating initial wave functions:
  45 bands from LCAO basis set

    .---------.  
   /|         |  
  / |         |  
 *  |         |  
 |Ti|  N      |  
 |  .---------.  
 N /  Ti     /   
 |/    Ti   /    
 Ti---N----*     

Positions:
   0 Ti     0.000000    0.000000    0.000000    ( 0.0000,  0.0000,  0.0000)
   1 Ti     2.120623    2.120623    0.000000    ( 0.0000,  0.0000,  0.0000)
   2 Ti     2.120623    0.000000    2.120623    ( 0.0000,  0.0000,  0.0000)
   3 Ti     0.000000    2.120623    2.120623    ( 0.0000,  0.0000,  0.0000)
   4 N      0.000000    0.000000    2.120623    ( 0.0000,  0.0000,  0.0000)
   5 N      2.120623    0.000000    0.000000    ( 0.0000,  0.0000,  0.0000)
   6 N      0.000000    2.120623    0.000000    ( 0.0000,  0.0000,  0.0000)
   7 N      2.120623    2.120623    2.120623    ( 0.0000,  0.0000,  0.0000)

Unit cell:
           periodic     x           y           z      points  spacing
  1. axis:    yes    4.241247    0.000000    0.000000    20     0.2121
  2. axis:    yes    0.000000    4.241247    0.000000    20     0.2121
  3. axis:    yes    0.000000    0.000000    4.241247    20     0.2121

  Lengths:   4.241247   4.241247   4.241247
  Angles:   90.000000  90.000000  90.000000

Effective grid spacing dv^(1/3) = 0.2121

     iter     time        total  log10-change:
                         energy   eigst   dens
iter:   1 21:57:32   -64.632375
iter:   2 21:57:34   -63.089129   -0.80  -1.04
iter:   3 21:57:36   -59.383943   -0.03  -1.10
iter:   4 21:57:38   -60.007708   -0.14  -1.40
iter:   5 21:57:40   -64.600802   +0.15  -1.68
iter:   6 21:57:42   -59.620040   -0.15  -1.21
iter:   7 21:57:44   -59.768302   -0.82  -2.14
iter:   8 21:57:46   -59.935288   -1.11  -1.99
iter:   9 21:57:48   -59.614606   -2.08  -1.83
iter:  10 21:57:50   -59.608284   -2.90  -2.17
iter:  11 21:57:52   -59.634974c  -3.46  -2.19
iter:  12 21:57:54   -59.559594   -1.65  -2.13
iter:  13 21:57:56   -59.565753   -2.78  -2.93
iter:  14 21:57:58   -59.567886c  -3.70  -2.68
iter:  15 21:58:00   -59.567503c  -4.14  -2.65
iter:  16 21:58:02   -59.585500c  -2.59  -2.64
iter:  17 21:58:04   -59.568040c  -2.88  -2.30
iter:  18 21:58:06   -59.565078c  -2.98  -2.52
iter:  19 21:58:08   -59.565005c  -3.25  -2.91
iter:  20 21:58:10   -59.565213c  -4.51  -3.05
iter:  21 21:58:12   -59.565310c  -4.53  -3.11
iter:  22 21:58:14   -59.565252c  -4.63  -3.39
iter:  23 21:58:16   -59.565344c  -4.59  -3.58
iter:  24 21:58:18   -59.565260c  -5.78  -3.76
iter:  25 21:58:20   -59.565261c  -6.22  -3.64
iter:  26 21:58:22   -59.565322c  -4.99  -3.61
iter:  27 21:58:24   -59.565227c  -5.11  -3.64
iter:  28 21:58:26   -59.565362c  -4.90  -3.65
iter:  29 21:58:28   -59.565229c  -5.02  -3.65
iter:  30 21:58:30   -59.565230c  -5.58  -3.97
iter:  31 21:58:32   -59.565233c  -6.64  -3.98
iter:  32 21:58:34   -59.565318c  -5.03  -4.01c
iter:  33 21:58:35   -59.565232c  -4.78  -3.96
iter:  34 21:58:37   -59.565238c  -6.24  -3.86
iter:  35 21:58:39   -59.565245c  -6.34  -4.25c
Timing:                              incl.     excl.
-----------------------------------------------------------
Hamiltonian:                         0.176     0.000   0.0% |
 Atomic:                             0.146     0.001   0.0% |
  XC Correction:                     0.146     0.146   0.2% |
 Calculate atomic Hamiltonians:      0.010     0.010   0.0% |
 Communicate:                        0.000     0.000   0.0% |
 Initialize Hamiltonian:             0.000     0.000   0.0% |
 Poisson:                            0.000     0.000   0.0% |
 XC 3D grid:                         0.019     0.019   0.0% |
LCAO initialization:                 5.039     0.073   0.1% |
 LCAO eigensolver:                   0.763     0.001   0.0% |
  Calculate projections:             0.003     0.003   0.0% |
  DenseAtomicCorrection:             0.006     0.006   0.0% |
  Distribute overlap matrix:         0.000     0.000   0.0% |
  Orbital Layouts:                   0.022     0.022   0.0% |
  Potential matrix:                  0.717     0.717   0.9% |
  Sum over cells:                    0.014     0.014   0.0% |
 LCAO to grid:                       3.603     3.603   4.8% |-|
 Set positions (LCAO WFS):           0.601     0.104   0.1% |
  Basic WFS set positions:           0.005     0.005   0.0% |
  Basis functions set positions:     0.000     0.000   0.0% |
  P tci:                             0.268     0.268   0.4% |
  ST tci:                            0.212     0.212   0.3% |
  mktci:                             0.011     0.011   0.0% |
PWDescriptor:                        0.003     0.003   0.0% |
SCF-cycle:                          70.316     0.137   0.2% |
 Davidson:                          58.157     5.485   7.2% |--|
  Apply H:                          11.455    11.212  14.8% |-----|
   HMM T:                            0.243     0.243   0.3% |
  Subspace diag:                    12.088     0.042   0.1% |
   calc_h_matrix:                   11.270     0.377   0.5% |
    Apply H:                        10.893    10.628  14.0% |-----|
     HMM T:                          0.265     0.265   0.3% |
   diagonalize:                      0.443     0.443   0.6% |
   rotate_psi:                       0.334     0.334   0.4% |
  calc. matrices:                   25.177     2.503   3.3% ||
   Apply H:                         22.674    22.182  29.3% |-----------|
    HMM T:                           0.492     0.492   0.6% |
  diagonalize:                       3.321     3.321   4.4% |-|
  rotate_psi:                        0.631     0.631   0.8% |
 Density:                            5.811     0.000   0.0% |
  Atomic density matrices:           0.156     0.156   0.2% |
  Mix:                               0.389     0.389   0.5% |
  Multipole moments:                 0.004     0.004   0.0% |
  Pseudo density:                    5.262     4.974   6.6% |--|
   Symmetrize density:               0.288     0.288   0.4% |
 Hamiltonian:                        6.174     0.015   0.0% |
  Atomic:                            5.290     0.023   0.0% |
   XC Correction:                    5.267     5.267   7.0% |--|
  Calculate atomic Hamiltonians:     0.267     0.267   0.4% |
  Communicate:                       0.000     0.000   0.0% |
  Poisson:                           0.006     0.006   0.0% |
  XC 3D grid:                        0.597     0.597   0.8% |
 Orthonormalize:                     0.037     0.001   0.0% |
  calc_s_matrix:                     0.010     0.010   0.0% |
  inverse-cholesky:                  0.003     0.003   0.0% |
  projections:                       0.018     0.018   0.0% |
  rotate_psi_s:                      0.005     0.005   0.0% |
Set symmetry:                        0.014     0.014   0.0% |
Other:                               0.183     0.183   0.2% |
-----------------------------------------------------------
Total:                                        75.730 100.0%

Memory usage: 238.28 MiB
Date: Tue Jun  3 21:58:41 2025
