3
Lattice="18.907558 0.0 0.0 0.0 15.74609 0.0 0.0 0.0 15.0" Properties=species:S:1:pos:R:3:forces:R:3:magmoms:R:1 energy=-46.53374377825626 dipole="1.1290662483813203e-06 -0.8248355021882715 -3.7404636111950755e-15" magmom=0.0 free_energy=-46.53398105604696 pbc="T T T"
S        0.85487083      12.51479078       7.50000000       0.00000866       0.00998566       0.00000000       0.00000000
Li       2.75900044      13.36699542       7.50000000      -0.01313774      -0.00193754       0.00000000       0.00000000
Li       0.00267174      10.61065876       7.50000000       0.01313607      -0.00193741       0.00000000       0.00000000
