6
Lattice="17.953278 0.0 0.0 0.0 18.57087 0.0 0.0 0.0 17.177086" Properties=species:S:1:pos:R:3:forces:R:3 energy=-22.309157326553553 pbc="T T T"
S        3.84475746     -13.65058094       7.45578545       0.00000000      -0.00043905      -0.00191777
Li       3.34774645     -11.40758448       7.97409367      -0.00333058       0.00000000       0.00513320
S        1.07003145     -11.70769687       7.45578545       0.00000000       0.00043905      -0.00191777
Li       1.56704246     -13.95069333       7.97409367       0.00333058       0.00000000       0.00513320
S        1.42569090     -11.95673230       9.45250343       0.00000000      -0.01948305      -0.00340396
S        3.48909801     -13.40154551       9.45250343       0.00000000       0.01948305      -0.00340396
