3
Lattice="18.907558 0.0 0.0 0.0 15.74609 0.0 0.0 0.0 15.0" Properties=species:S:1:pos:R:3:forces:R:3 energy=-7.9921247563773905 pbc="T T T"
S        0.83288116      12.53677573       7.50000000       0.00002911       0.01234689      -0.00000000
Li       2.76013363      13.34395087       7.50000000      -0.01586710      -0.01186727       0.00000000
Li       0.02571581      10.60952494       7.50000000       0.01582685      -0.01188334       0.00000000
