6
Lattice="17.953278 0.0 0.0 0.0 18.57087 0.0 0.0 0.0 17.177086" Properties=species:S:1:pos:R:3:forces:R:3:magmoms:R:1 energy=-153.73522554121854 dipole="-1.1057799240399854e-14 8.197062123337492e-14 -0.14081125481463616" magmom=0.0 free_energy=-153.7388243087125 pbc="T T T"
S        3.86170234     -13.66244587       7.45950295       0.00000000      -0.00175755      -0.01230658       0.00000000
Li       3.33741046     -11.42234580       7.96939717      -0.00126264       0.00000000       0.00581657       0.00000000
S        1.05308657     -11.69583194       7.45950295       0.00000000       0.00175755      -0.01230658       0.00000000
Li       1.57737845     -13.93593201       7.96939717       0.00126264       0.00000000       0.00581657       0.00000000
S        1.41008028     -11.94580163       9.45291799      -0.00000000      -0.00236443       0.00796041       0.00000000
S        3.50470863     -13.41247618       9.45291799       0.00000000       0.00236443       0.00796041       0.00000000
